t 1 /NodeList/1/DeviceList/2/$ns3::NocNetDevice/Send NocHeader (xDistance=1 yDistance=2 sourceX=0 sourceY=1 subdataId=0 peGroupAddress=0 dataFlitCount=3) Payload (size=512)
t 1 /NodeList/1/DeviceList/2/$ns3::NocNetDevice/Send NocHeader (xDistance=1 yDistance=2 sourceX=0 sourceY=1 subdataId=0 peGroupAddress=0 dataFlitCount=3) Payload (size=512)
t 1.00008 /NodeList/5/DeviceList/3/$ns3::NocNetDevice/Send NocHeader (xDistance=1 yDistance=1 sourceX=0 sourceY=1 subdataId=0 peGroupAddress=0 dataFlitCount=3) Payload (size=512)
t 1.00016 /NodeList/9/DeviceList/3/$ns3::NocNetDevice/Send NocHeader (xDistance=1 yDistance=0 sourceX=0 sourceY=1 subdataId=0 peGroupAddress=0 dataFlitCount=3) Payload (size=512)
t 1.00024 /NodeList/13/DeviceList/1/$ns3::NocNetDevice/Send NocHeader (xDistance=0 yDistance=0 sourceX=0 sourceY=1 subdataId=0 peGroupAddress=0 dataFlitCount=3) Payload (size=512)
r 1.00032 /NodeList/14/DeviceList/0/$ns3::NocNetDevice/Receive NocHeader (xDistance=0 yDistance=0 sourceX=0 sourceY=1 subdataId=0 peGroupAddress=0 dataFlitCount=3) Payload (size=512)
t 2 /NodeList/1/DeviceList/2/$ns3::NocNetDevice/Send Payload (size=512)
t 2 /NodeList/1/DeviceList/2/$ns3::NocNetDevice/Send Payload (size=512)
t 2.00008 /NodeList/5/DeviceList/3/$ns3::NocNetDevice/Send NocHeader (xDistance=1 yDistance=1 sourceX=0 sourceY=1 subdataId=0 peGroupAddress=0 dataFlitCount=3) Payload (size=512)
t 2.00016 /NodeList/9/DeviceList/3/$ns3::NocNetDevice/Send NocHeader (xDistance=1 yDistance=0 sourceX=0 sourceY=1 subdataId=0 peGroupAddress=0 dataFlitCount=3) Payload (size=512)
t 2.00017 /NodeList/5/DeviceList/3/$ns3::NocNetDevice/Send Payload (size=512)
t 2.00024 /NodeList/13/DeviceList/1/$ns3::NocNetDevice/Send NocHeader (xDistance=0 yDistance=0 sourceX=0 sourceY=1 subdataId=0 peGroupAddress=0 dataFlitCount=3) Payload (size=512)
t 2.00024 /NodeList/9/DeviceList/3/$ns3::NocNetDevice/Send Payload (size=512)
t 2.00025 /NodeList/5/DeviceList/3/$ns3::NocNetDevice/Send Payload (size=512)
r 2.00032 /NodeList/14/DeviceList/0/$ns3::NocNetDevice/Receive NocHeader (xDistance=0 yDistance=0 sourceX=0 sourceY=1 subdataId=0 peGroupAddress=0 dataFlitCount=3) Payload (size=512)
t 2.00032 /NodeList/13/DeviceList/1/$ns3::NocNetDevice/Send Payload (size=512)
t 2.00033 /NodeList/9/DeviceList/3/$ns3::NocNetDevice/Send Payload (size=512)
r 2.0004 /NodeList/14/DeviceList/0/$ns3::NocNetDevice/Receive Payload (size=512)
t 2.00041 /NodeList/13/DeviceList/1/$ns3::NocNetDevice/Send Payload (size=512)
r 2.00049 /NodeList/14/DeviceList/0/$ns3::NocNetDevice/Receive Payload (size=512)
t 3 /NodeList/1/DeviceList/2/$ns3::NocNetDevice/Send Payload (size=512)
t 3 /NodeList/1/DeviceList/2/$ns3::NocNetDevice/Send Payload (size=512)
t 3.00008 /NodeList/5/DeviceList/3/$ns3::NocNetDevice/Send Payload (size=512)
t 3.00016 /NodeList/9/DeviceList/3/$ns3::NocNetDevice/Send Payload (size=512)
t 3.00023 /NodeList/13/DeviceList/1/$ns3::NocNetDevice/Send Payload (size=512)
r 3.00031 /NodeList/14/DeviceList/0/$ns3::NocNetDevice/Receive Payload (size=512)
t 4 /NodeList/1/DeviceList/2/$ns3::NocNetDevice/Send NocHeader (xDistance=1 yDistance=2 sourceX=0 sourceY=1 subdataId=0 peGroupAddress=0 dataFlitCount=3) Payload (size=512)
t 4 /NodeList/1/DeviceList/2/$ns3::NocNetDevice/Send NocHeader (xDistance=1 yDistance=2 sourceX=0 sourceY=1 subdataId=0 peGroupAddress=0 dataFlitCount=3) Payload (size=512)
t 4.00008 /NodeList/5/DeviceList/3/$ns3::NocNetDevice/Send Payload (size=512)
t 4.00016 /NodeList/9/DeviceList/3/$ns3::NocNetDevice/Send Payload (size=512)
t 4.00017 /NodeList/5/DeviceList/3/$ns3::NocNetDevice/Send NocHeader (xDistance=1 yDistance=1 sourceX=0 sourceY=1 subdataId=0 peGroupAddress=0 dataFlitCount=3) Payload (size=512)
t 4.00023 /NodeList/13/DeviceList/1/$ns3::NocNetDevice/Send Payload (size=512)
t 4.00025 /NodeList/9/DeviceList/3/$ns3::NocNetDevice/Send NocHeader (xDistance=1 yDistance=0 sourceX=0 sourceY=1 subdataId=0 peGroupAddress=0 dataFlitCount=3) Payload (size=512)
t 4.00026 /NodeList/5/DeviceList/3/$ns3::NocNetDevice/Send NocHeader (xDistance=1 yDistance=1 sourceX=0 sourceY=1 subdataId=0 peGroupAddress=0 dataFlitCount=3) Payload (size=512)
r 4.00031 /NodeList/14/DeviceList/0/$ns3::NocNetDevice/Receive Payload (size=512)
t 4.00033 /NodeList/13/DeviceList/1/$ns3::NocNetDevice/Send NocHeader (xDistance=0 yDistance=0 sourceX=0 sourceY=1 subdataId=0 peGroupAddress=0 dataFlitCount=3) Payload (size=512)
t 4.00034 /NodeList/9/DeviceList/3/$ns3::NocNetDevice/Send NocHeader (xDistance=1 yDistance=0 sourceX=0 sourceY=1 subdataId=0 peGroupAddress=0 dataFlitCount=3) Payload (size=512)
r 4.00041 /NodeList/14/DeviceList/0/$ns3::NocNetDevice/Receive NocHeader (xDistance=0 yDistance=0 sourceX=0 sourceY=1 subdataId=0 peGroupAddress=0 dataFlitCount=3) Payload (size=512)
t 4.00042 /NodeList/13/DeviceList/1/$ns3::NocNetDevice/Send NocHeader (xDistance=0 yDistance=0 sourceX=0 sourceY=1 subdataId=0 peGroupAddress=0 dataFlitCount=3) Payload (size=512)
r 4.0005 /NodeList/14/DeviceList/0/$ns3::NocNetDevice/Receive NocHeader (xDistance=0 yDistance=0 sourceX=0 sourceY=1 subdataId=0 peGroupAddress=0 dataFlitCount=3) Payload (size=512)
t 5 /NodeList/1/DeviceList/2/$ns3::NocNetDevice/Send Payload (size=512)
t 5 /NodeList/1/DeviceList/2/$ns3::NocNetDevice/Send Payload (size=512)
t 5.00008 /NodeList/5/DeviceList/3/$ns3::NocNetDevice/Send Payload (size=512)
t 5.00016 /NodeList/9/DeviceList/3/$ns3::NocNetDevice/Send Payload (size=512)
t 5.00023 /NodeList/13/DeviceList/1/$ns3::NocNetDevice/Send Payload (size=512)
r 5.00031 /NodeList/14/DeviceList/0/$ns3::NocNetDevice/Receive Payload (size=512)
t 6 /NodeList/1/DeviceList/2/$ns3::NocNetDevice/Send Payload (size=512)
t 6 /NodeList/1/DeviceList/2/$ns3::NocNetDevice/Send Payload (size=512)
t 6.00008 /NodeList/5/DeviceList/3/$ns3::NocNetDevice/Send Payload (size=512)
t 6.00016 /NodeList/9/DeviceList/3/$ns3::NocNetDevice/Send Payload (size=512)
t 6.00017 /NodeList/5/DeviceList/3/$ns3::NocNetDevice/Send Payload (size=512)
t 6.00023 /NodeList/13/DeviceList/1/$ns3::NocNetDevice/Send Payload (size=512)
t 6.00024 /NodeList/9/DeviceList/3/$ns3::NocNetDevice/Send Payload (size=512)
t 6.00025 /NodeList/5/DeviceList/3/$ns3::NocNetDevice/Send Payload (size=512)
r 6.00031 /NodeList/14/DeviceList/0/$ns3::NocNetDevice/Receive Payload (size=512)
t 6.00032 /NodeList/13/DeviceList/1/$ns3::NocNetDevice/Send Payload (size=512)
t 6.00033 /NodeList/9/DeviceList/3/$ns3::NocNetDevice/Send Payload (size=512)
r 6.0004 /NodeList/14/DeviceList/0/$ns3::NocNetDevice/Receive Payload (size=512)
t 6.00041 /NodeList/13/DeviceList/1/$ns3::NocNetDevice/Send Payload (size=512)
r 6.00049 /NodeList/14/DeviceList/0/$ns3::NocNetDevice/Receive Payload (size=512)
t 7 /NodeList/1/DeviceList/2/$ns3::NocNetDevice/Send NocHeader (xDistance=1 yDistance=2 sourceX=0 sourceY=1 subdataId=0 peGroupAddress=0 dataFlitCount=3) Payload (size=512)
t 7 /NodeList/1/DeviceList/2/$ns3::NocNetDevice/Send NocHeader (xDistance=1 yDistance=2 sourceX=0 sourceY=1 subdataId=0 peGroupAddress=0 dataFlitCount=3) Payload (size=512)
t 7.00008 /NodeList/5/DeviceList/3/$ns3::NocNetDevice/Send NocHeader (xDistance=1 yDistance=1 sourceX=0 sourceY=1 subdataId=0 peGroupAddress=0 dataFlitCount=3) Payload (size=512)
t 7.00016 /NodeList/9/DeviceList/3/$ns3::NocNetDevice/Send NocHeader (xDistance=1 yDistance=0 sourceX=0 sourceY=1 subdataId=0 peGroupAddress=0 dataFlitCount=3) Payload (size=512)
t 7.00024 /NodeList/13/DeviceList/1/$ns3::NocNetDevice/Send NocHeader (xDistance=0 yDistance=0 sourceX=0 sourceY=1 subdataId=0 peGroupAddress=0 dataFlitCount=3) Payload (size=512)
r 7.00032 /NodeList/14/DeviceList/0/$ns3::NocNetDevice/Receive NocHeader (xDistance=0 yDistance=0 sourceX=0 sourceY=1 subdataId=0 peGroupAddress=0 dataFlitCount=3) Payload (size=512)
t 8 /NodeList/1/DeviceList/2/$ns3::NocNetDevice/Send Payload (size=512)
t 8 /NodeList/1/DeviceList/2/$ns3::NocNetDevice/Send Payload (size=512)
t 8.00008 /NodeList/5/DeviceList/3/$ns3::NocNetDevice/Send NocHeader (xDistance=1 yDistance=1 sourceX=0 sourceY=1 subdataId=0 peGroupAddress=0 dataFlitCount=3) Payload (size=512)
t 8.00016 /NodeList/9/DeviceList/3/$ns3::NocNetDevice/Send NocHeader (xDistance=1 yDistance=0 sourceX=0 sourceY=1 subdataId=0 peGroupAddress=0 dataFlitCount=3) Payload (size=512)
t 8.00017 /NodeList/5/DeviceList/3/$ns3::NocNetDevice/Send Payload (size=512)
t 8.00024 /NodeList/13/DeviceList/1/$ns3::NocNetDevice/Send NocHeader (xDistance=0 yDistance=0 sourceX=0 sourceY=1 subdataId=0 peGroupAddress=0 dataFlitCount=3) Payload (size=512)
t 8.00024 /NodeList/9/DeviceList/3/$ns3::NocNetDevice/Send Payload (size=512)
t 8.00025 /NodeList/5/DeviceList/3/$ns3::NocNetDevice/Send Payload (size=512)
r 8.00032 /NodeList/14/DeviceList/0/$ns3::NocNetDevice/Receive NocHeader (xDistance=0 yDistance=0 sourceX=0 sourceY=1 subdataId=0 peGroupAddress=0 dataFlitCount=3) Payload (size=512)
t 8.00032 /NodeList/13/DeviceList/1/$ns3::NocNetDevice/Send Payload (size=512)
t 8.00033 /NodeList/9/DeviceList/3/$ns3::NocNetDevice/Send Payload (size=512)
r 8.0004 /NodeList/14/DeviceList/0/$ns3::NocNetDevice/Receive Payload (size=512)
t 8.00041 /NodeList/13/DeviceList/1/$ns3::NocNetDevice/Send Payload (size=512)
r 8.00049 /NodeList/14/DeviceList/0/$ns3::NocNetDevice/Receive Payload (size=512)
t 9 /NodeList/1/DeviceList/2/$ns3::NocNetDevice/Send Payload (size=512)
t 9 /NodeList/1/DeviceList/2/$ns3::NocNetDevice/Send Payload (size=512)
t 9.00008 /NodeList/5/DeviceList/3/$ns3::NocNetDevice/Send Payload (size=512)
t 9.00016 /NodeList/9/DeviceList/3/$ns3::NocNetDevice/Send Payload (size=512)
t 9.00023 /NodeList/13/DeviceList/1/$ns3::NocNetDevice/Send Payload (size=512)
r 9.00031 /NodeList/14/DeviceList/0/$ns3::NocNetDevice/Receive Payload (size=512)